 Gaussian 09, Revision D.01,
 Gaussian 09:  AM64L-G09RevD.01 24-Apr-2013

 ----------------------------------------------------------------------
 #p geom=allcheck guess=read chkbasis freq=(noraman,HPModes) pop=(Chelp
 G,readradii) m06 empiricaldispersion=gd3 int=ultrafine
 ----------------------------------------------------------------------

 Structure from the checkpoint file:  "/scratch/Gau-2844.chk"
 ------------
 freq with HP
 ------------
 Charge =  1 Multiplicity = 1

                         Standard orientation:
 ---------------------------------------------------------------------
 Center     Atomic      Atomic             Coordinates (Angstroms)
 Number     Number       Type             X           Y           Z
 ---------------------------------------------------------------------
      1         46           0       -0.145745    0.571083    0.184218
      2          6           0       -0.599330    2.598486    0.411510
      3          6           0       -1.882573    2.058469    0.646951
      4          6           0       -2.149538    0.022722    0.191136
      5          7           0        1.997408    0.754129    0.124852
      6          6           0        2.613013   -0.370010    0.018744
      7          6           0        1.906588   -1.647815   -0.111074
      8          7           0        0.562348   -1.540411   -0.074111
      9          6           0       -0.167946   -2.646343   -0.191606
     10          1           0       -1.249786   -2.518075   -0.155187
     11          8           0        3.937651   -0.358798    0.028701
     12          6           0       -4.209437   -1.825197   -0.115546
     13          6           0       -3.730347   -1.125067   -1.223133
     14          6           0       -2.707594   -0.189982   -1.072602
     15          6           0       -2.634280   -0.664398    1.306004
     16          6           0       -3.662934   -1.593175    1.146001
     17          8           0       -0.831138    4.665695   -0.625882
     18          6           0       -0.346742    3.362333   -0.859390
     19          1           0       -5.020888   -2.540868   -0.233812
     20          1           0       -4.162834   -1.295604   -2.207837
     21          1           0       -2.351864    0.372813   -1.937196
     22          1           0       -2.216007   -0.478667    2.296158
     23          1           0       -4.042786   -2.128806    2.014765
     24          1           0       -0.656827    5.231030   -1.391926
     25          1           0       -0.876908    2.876237   -1.699180
     26          1           0        0.729443    3.367520   -1.102438
     27          1           0       -0.008111    2.910270    1.278913
     28          1           0       -2.230622    1.944339    1.671902
     29          1           0       -2.667199    2.268139   -0.079847
     30          6           0        2.565429   -2.858288   -0.260687
     31          6           0        1.793864   -4.013516   -0.382624
     32          6           0        0.410839   -3.906646   -0.349035
     33          6           0        4.339411    1.024451    0.230851
     34          6           0        3.013064    1.805261    0.219112
     35          1           0        3.652322   -2.888389   -0.281155
     36          1           0        2.272976   -4.982820   -0.502605
     37          1           0       -0.225491   -4.783191   -0.441760
     38          1           0        4.871464    1.069376    1.185941
     39          1           0        5.023179    1.287538   -0.580295
     40          1           0        2.857979    2.399440    1.127991
     41          1           0        2.926893    2.481006   -0.641873
 ---------------------------------------------------------------------

 SCF Done:  E(RM06) =  -1045.08708861     A.U. after    2 cycles

 The electronic state is 1-A.
 Alpha  occ. eigenvalues --  -19.42366 -19.34224 -14.58100 -14.56478 -10.50566
 Alpha  occ. eigenvalues --  -10.45025 -10.44406 -10.43355 -10.42236 -10.41791
 Alpha  occ. eigenvalues --  -10.41692 -10.41106 -10.40774 -10.40254 -10.40141
 Alpha  occ. eigenvalues --  -10.39839 -10.37162 -10.37138 -10.36788 -10.36774
 Alpha  occ. eigenvalues --  -10.36445  -3.47433  -2.21758  -2.21604  -2.18371
 Alpha  occ. eigenvalues --   -1.27634  -1.16235  -1.12291  -1.07832  -0.98427
 Alpha  occ. eigenvalues --   -0.96278  -0.95625  -0.93772  -0.90041  -0.87245
 Alpha  occ. eigenvalues --   -0.87090  -0.81651  -0.80953  -0.80472  -0.77643
 Alpha  occ. eigenvalues --   -0.73145  -0.72876  -0.72384  -0.70392  -0.69356
 Alpha  occ. eigenvalues --   -0.66031  -0.65037  -0.64869  -0.64003  -0.63540
 Alpha  occ. eigenvalues --   -0.62152  -0.61093  -0.59768  -0.58489  -0.57989
 Alpha  occ. eigenvalues --   -0.57574  -0.57296  -0.56993  -0.56175  -0.55654
 Alpha  occ. eigenvalues --   -0.54432  -0.54266  -0.53525  -0.53010  -0.52481
 Alpha  occ. eigenvalues --   -0.51708  -0.51402  -0.50966  -0.49812  -0.48278
 Alpha  occ. eigenvalues --   -0.46834  -0.46471  -0.45343  -0.45191  -0.43219
 Alpha  occ. eigenvalues --   -0.42821  -0.41907  -0.41798  -0.40186  -0.40080
 Alpha  occ. eigenvalues --   -0.38950  -0.38205  -0.37521  -0.35521
 Alpha virt. eigenvalues --   -0.19722  -0.17267  -0.16056  -0.14940  -0.13311
 Alpha virt. eigenvalues --   -0.12678  -0.12063  -0.11828  -0.11351  -0.10387
 Alpha virt. eigenvalues --   -0.09980  -0.09641  -0.09520  -0.09218  -0.08830

 Mulliken charges:
               1
     1  Pd  -0.027515
     2  C   -0.135071
     3  C   -0.324043
     4  C   -0.510875
     5  N   -0.158796
     6  C    0.005600
     7  C    0.091727
     8  N    0.228296
     9  C   -0.062630
    10  H    0.234440
    11  O   -0.284469
    12  C   -0.191375
    13  C   -0.140314
    14  C   -0.012355
    15  C   -0.078511
    16  C   -0.169490
    17  O   -0.639738
    18  C   -0.118190
    19  H    0.219755
    20  H    0.217323
    21  H    0.208718
    22  H    0.211007
    23  H    0.217822
    24  H    0.508659
    25  H    0.194564
    26  H    0.173229
    27  H    0.247928
    28  H    0.267732
    29  H    0.280181
    30  C   -0.004174
    31  C   -0.394137
    32  C   -0.369648
    33  C   -0.266734
    34  C   -0.131813
    35  H    0.258877
    36  H    0.245736
    37  H    0.242696
    38  H    0.243115
    39  H    0.242148
    40  H    0.245735
    41  H    0.234588
 Sum of Mulliken charges =   1.00000

 Dipole moment (field-independent basis, Debye):
    X=              3.6271    Y=             -1.9366    Z=             -1.0758  Tot=              4.2501
 Quadrupole moment (field-independent basis, Debye-Ang):
   XX=            -93.3615   YY=            -95.5196   ZZ=           -130.4170
   XY=              9.0793   XZ=              1.1273   YZ=             -4.5551

  Exact polarizability: 285.628  21.597 288.237   1.798   4.158 164.380
 Approx polarizability: 398.516  36.498 418.396   4.351   9.243 279.801

 ESP charges:
               1
     1  Pd  -0.468849
     2  C    0.414399
     3  C   -0.207919
     4  C    0.375084
     5  N   -0.117958
     6  C    0.436652
     7  C    0.113214
     8  N   -0.085685
     9  C    0.141519
    10  H    0.040759
    11  O   -0.383312
    12  C   -0.074797
    13  C   -0.072439
    14  C   -0.204933
    15  C   -0.234765
    16  C   -0.064457
    17  O   -0.742735
    18  C    0.142821
    19  H    0.110310
    20  H    0.112627
    21  H    0.123537
    22  H    0.152509
    23  H    0.107943
    24  H    0.484978
    25  H    0.044941
    26  H    0.009786
    27  H    0.027419
    28  H    0.109464
    29  H    0.110491
    30  C   -0.105445
    31  C    0.017391
    32  C   -0.141808
    33  C    0.300101
    34  C   -0.113297
    35  H    0.120979
    36  H    0.127544
    37  H    0.138132
    38  H    0.036531
    39  H    0.041118
    40  H    0.095385
    41  H    0.082767
 Sum of ESP charges =   1.00000

 ******    1 imaginary frequencies (negative Signs) ******

                      1                      2                      3
                      A                      A                      A
 Frequencies --   -257.4503                25.3016                37.4059
 Red. masses --      6.8844                 4.8670                 1.9438
 Frc consts  --      0.2688                 0.0018                 0.0016
 IR Inten    --     18.6819                 0.0309                 0.5024

                      4                      5                      6
                      A                      A                      A
 Frequencies --     45.0571                50.5175                59.3644
 Red. masses --      5.2296                 5.2508                 5.5270
 Frc consts  --      0.0063                 0.0079                 0.0115
 IR Inten    --      0.2781                 0.5115                 0.2907

                      7                      8                      9
                      A                      A                      A
 Frequencies --     79.9070                94.9195                98.8797
 Red. masses --      2.8606                 3.9509                 3.4817
 Frc consts  --      0.0108                 0.0210                 0.0201
 IR Inten    --      4.0150                 1.3583                 2.7017

                     10                     11                     12
                      A                      A                      A
 Frequencies --    118.1269               134.2030               142.9369
 Red. masses --      4.5103                 5.2271                 6.0614
 Frc consts  --      0.0371                 0.0555                 0.0730
 IR Inten    --      4.5131                 2.1756                 1.0041

                     13                     14                     15
                      A                      A                      A
 Frequencies --    164.1757               188.7026               211.9002
 Red. masses --      5.8239                 5.5207                 5.0279
 Frc consts  --      0.0925                 0.1158                 0.1330
 IR Inten    --      1.3121                 0.1584                 3.2069

                     16                     17                     18
                      A                      A                      A
 Frequencies --    227.3112               231.9588               249.3758
 Red. masses --      5.8486                 4.7975                 4.3985
 Frc consts  --      0.1780                 0.1521                 0.1612
 IR Inten    --      3.0275                 2.4742                16.2801

                     19                     20                     21
                      A                      A                      A
 Frequencies --    263.1386               265.3826               298.1748
 Red. masses --      1.4211                 3.2568                 7.9167
 Frc consts  --      0.0580                 0.1351                 0.4147
 IR Inten    --    106.1517                19.7011                 9.4840

                     22                     23                     24
                      A                      A                      A
 Frequencies --    346.7911               379.6317               407.0736
 Red. masses --      5.5733                 6.9363                 2.8368
 Frc consts  --      0.3949                 0.5890                 0.2770
 IR Inten    --      6.3254                 1.6503                 1.8585

                     25                     26                     27
                      A                      A                      A
 Frequencies --    413.7891               421.8199               446.1528
 Red. masses --      2.6549                 3.3143                 2.6350
 Frc consts  --      0.2678                 0.3475                 0.3090
 IR Inten    --      4.8650                 1.3618                 6.1316

                     28                     29                     30
                      A                      A                      A
 Frequencies --    470.7216               481.4940               609.8808
 Red. masses --      3.6171                 5.9599                 6.3029
 Frc consts  --      0.4722                 0.8141                 1.3813
 IR Inten    --      0.6457                 5.2151                 0.2603

                     31                     32                     33
                      A                      A                      A
 Frequencies --    622.0844               641.7832               645.1832
 Red. masses --      3.0491                 6.8274                 6.5484
 Frc consts  --      0.6952                 1.6568                 1.6060
 IR Inten    --     25.7473                15.1300                 9.9755

                     34                     35                     36
                      A                      A                      A
 Frequencies --    684.5564               697.4956               717.6467
 Red. masses --      3.9056                 2.8429                 6.7499
 Frc consts  --      1.0784                 0.8149                 2.0482
 IR Inten    --     21.7427                 5.9979                 3.0093

                     37                     38                     39
                      A                      A                      A
 Frequencies --    734.1016               758.5735               761.4778
 Red. masses --      1.3054                 2.5367                 3.0108
 Frc consts  --      0.4145                 0.8600                 1.0286
 IR Inten    --     90.6772                15.2499                15.1608

                     40                     41                     42
                      A                      A                      A
 Frequencies --    807.1432               836.4741               844.3945
 Red. masses --      1.9840                 1.4158                 1.2599
 Frc consts  --      0.7616                 0.5837                 0.5293
 IR Inten    --     14.6269                 0.8427                 0.1512

                     43                     44                     45
                      A                      A                      A
 Frequencies --    848.9376               910.0412               920.8526
 Red. masses --      1.3462                 1.3258                 1.3237
 Frc consts  --      0.5716                 0.6469                 0.6613
 IR Inten    --      0.7647                 3.3841                 4.0973

                     46                     47                     48
                      A                      A                      A
 Frequencies --    922.1745               929.0673               949.3785
 Red. masses --      1.4270                 1.5995                 6.3576
 Frc consts  --      0.7150                 0.8135                 3.3762
 IR Inten    --     22.6543                 5.3940                 6.7429

                     49                     50                     51
                      A                      A                      A
 Frequencies --    978.5333               978.9280               985.7837
 Red. masses --      2.4077                 1.9449                 2.6914
 Frc consts  --      1.3583                 1.0981                 1.5410
 IR Inten    --     38.5965                25.9022                 9.2494

                     52                     53                     54
                      A                      A                      A
 Frequencies --    986.0074              1003.1714              1013.7591
 Red. masses --      1.9664                 1.3021                 1.2922
 Frc consts  --      1.1264                 0.7721                 0.7824
 IR Inten    --      5.5678                 0.1695                 6.3914

                     55                     56                     57
                      A                      A                      A
 Frequencies --   1021.0470              1024.4074              1027.6265
 Red. masses --      4.0752                 1.3532                 5.0755
 Frc consts  --      2.5032                 0.8367                 3.1579
 IR Inten    --     38.3474                 0.2269                 3.9481

                     58                     59                     60
                      A                      A                      A
 Frequencies --   1032.4460              1058.7603              1069.4623
 Red. masses --      6.4012                 1.6585                 4.3876
 Frc consts  --      4.0202                 1.0954                 2.9567
 IR Inten    --      5.6567                 0.0412                14.6176

                     61                     62                     63
                      A                      A                      A
 Frequencies --   1079.7802              1092.2130              1095.6306
 Red. masses --      2.2706                 1.3180                 1.5223
 Frc consts  --      1.5597                 0.9263                 1.0767
 IR Inten    --      9.6898                 2.8435                 5.9977

                     64                     65                     66
                      A                      A                      A
 Frequencies --   1108.3747              1112.9425              1120.5653
 Red. masses --      4.8036                 1.6417                 1.5342
 Frc consts  --      3.4769                 1.1981                 1.1350
 IR Inten    --    112.2295                 0.7540                15.7421

                     67                     68                     69
                      A                      A                      A
 Frequencies --   1155.1073              1168.8884              1172.2655
 Red. masses --      1.4664                 1.0800                 1.1023
 Frc consts  --      1.1528                 0.8694                 0.8925
 IR Inten    --     45.2825                 0.1375                 0.3433

                     70                     71                     72
                      A                      A                      A
 Frequencies --   1186.3487              1198.7651              1202.5898
 Red. masses --      1.1183                 3.0176                 1.2780
 Frc consts  --      0.9273                 2.5549                 1.0890
 IR Inten    --      1.2990                92.4327                44.1326

                     73                     74                     75
                      A                      A                      A
 Frequencies --   1217.5428              1239.7526              1248.3844
 Red. masses --      1.1262                 1.2542                 1.1180
 Frc consts  --      0.9836                 1.1357                 1.0266
 IR Inten    --      9.1724                14.0666                 6.0306

                     76                     77                     78
                      A                      A                      A
 Frequencies --   1266.4840              1302.6084              1314.2285
 Red. masses --      1.2060                 1.5573                 1.3580
 Frc consts  --      1.1397                 1.5568                 1.3819
 IR Inten    --      2.4343                55.8947                 1.5076

                     79                     80                     81
                      A                      A                      A
 Frequencies --   1315.0390              1352.5082              1359.4913
 Red. masses --      1.3767                 4.0459                 6.5666
 Frc consts  --      1.4027                 4.3606                 7.1506
 IR Inten    --      4.6199                25.6445                 0.9201

                     82                     83                     84
                      A                      A                      A
 Frequencies --   1373.0036              1386.4518              1444.6018
 Red. masses --      1.7595                 1.3182                 1.3744
 Frc consts  --      1.9543                 1.4930                 1.6899
 IR Inten    --      0.1607                 1.0512                11.5758

                     85                     86                     87
                      A                      A                      A
 Frequencies --   1454.0530              1462.5967              1474.5589
 Red. masses --      2.5180                 2.2342                 2.4068
 Frc consts  --      3.1367                 2.8159                 3.0833
 IR Inten    --    181.1445                 7.5509                 1.5684

                     88                     89                     90
                      A                      A                      A
 Frequencies --   1490.2818              1491.3229              1502.6237
 Red. masses --      1.1711                 1.8791                 1.1309
 Frc consts  --      1.5324                 2.4623                 1.5045
 IR Inten    --      2.6050                18.8286                 1.9352

                     91                     92                     93
                      A                      A                      A
 Frequencies --   1510.0714              1518.1617              1540.0851
 Red. masses --      1.1841                 2.1808                 3.4768
 Frc consts  --      1.5909                 2.9614                 4.8587
 IR Inten    --      3.7282                 0.5477                57.4975

                     94                     95                     96
                      A                      A                      A
 Frequencies --   1625.2762              1634.0653              1644.5338
 Red. masses --      5.8726                 6.1574                 6.8741
 Frc consts  --      9.1398                 9.6870                10.9535
 IR Inten    --     15.0025                 3.0502                11.6597

                     97                     98                     99
                      A                      A                      A
 Frequencies --   1657.4169              1719.2410              2978.2225
 Red. masses --      6.4476                 9.4700                 1.0586
 Frc consts  --     10.4355                16.4919                 5.5322
 IR Inten    --     87.9486               156.5372                31.4779

                    100                    101                    102
                      A                      A                      A
 Frequencies --   3026.0030              3052.8049              3090.1431
 Red. masses --      1.1040                 1.0616                 1.0612
 Frc consts  --      5.9561                 5.8294                 5.9706
 IR Inten    --     41.8784                14.2828                17.8567

                    103                    104                    105
                      A                      A                      A
 Frequencies --   3103.2084              3124.0051              3138.5583
 Red. masses --      1.1063                 1.0879                 1.0582
 Frc consts  --      6.2770                 6.2558                 6.1416
 IR Inten    --      4.0018                 5.3823                 1.9403

                    106                    107                    108
                      A                      A                      A
 Frequencies --   3157.8965              3160.5113              3162.2732
 Red. masses --      1.1117                 1.0883                 1.0889
 Frc consts  --      6.5318                 6.4051                 6.4156
 IR Inten    --      3.9111                 1.4288                 0.6897

                    109                    110                    111
                      A                      A                      A
 Frequencies --   3180.2804              3183.2502              3186.6985
 Red. masses --      1.0897                 1.0921                 1.0942
 Frc consts  --      6.4934                 6.5200                 6.5466
 IR Inten    --      0.8811                 8.3434                 7.5984

                    112                    113                    114
                      A                      A                      A
 Frequencies --   3197.2459              3199.5267              3210.9439
 Red. masses --      1.0901                 1.0985                 1.0941
 Frc consts  --      6.5653                 6.6253                 6.6460
 IR Inten    --      0.3000                 7.7028                 1.1248

                    115                    116                    117
                      A                      A                      A
 Frequencies --   3215.1578              3240.0867              3814.7617
 Red. masses --      1.0995                 1.1164                 1.0669
 Frc consts  --      6.6967                 6.9054                 9.1474
 IR Inten    --      0.5413                 0.5194                98.2650

 - Thermochemistry -
 -------------------
 Temperature   298.150 Kelvin.  Pressure   1.00000 Atm.
 Atom     1 has atomic number 46 and mass 105.90320

 Molecular mass:   389.04785 amu.
 Principal axes and moments of inertia in atomic units:
                           1         2         3
     Eigenvalues --  6130.035717223.10638**********
           X            0.99736   0.07259   0.00136
           Y           -0.07258   0.99735  -0.00390
           Z           -0.00164   0.00380   0.99999
 This molecule is an asymmetric top.
 Rotational symmetry number  1.
 Warning -- assumption of classical behavior for rotation
           may cause significant error
 Rotational temperatures (Kelvin)      0.01413     0.01199     0.00698
 Rotational constants (GHZ):           0.29441     0.24986     0.14552
    1 imaginary frequencies ignored.
 Zero-point vibrational energy     867500.9 (Joules/Mol)
                                  207.33769 (Kcal/Mol)
 Warning -- explicit consideration of  29 degrees of freedom as
           vibrations may cause significant error
 Vibrational temperatures:     36.40    53.82    64.83    72.68    85.41
          (Kelvin)            114.97   136.57   142.27   169.96   193.09
                              205.65   236.21   271.50   304.88   327.05
                              333.74   358.80   378.60   381.83   429.01
                              498.95   546.20   585.69   595.35   606.90
                              641.91   677.26   692.76   877.48   895.04
                              923.38   928.27   984.92  1003.54  1032.53
                             1056.21  1091.42  1095.60  1161.30  1203.50
                             1214.89  1221.43  1309.34  1324.90  1326.80
                             1336.72  1365.94  1407.89  1408.46  1418.32
                             1418.64  1443.34  1458.57  1469.06  1473.89
                             1478.52  1485.46  1523.32  1538.72  1553.56
                             1571.45  1576.37  1594.70  1601.27  1612.24
                             1661.94  1681.77  1686.63  1706.89  1724.75
                             1730.26  1751.77  1783.73  1796.14  1822.19
                             1874.16  1890.88  1892.05  1945.96  1956.00
                             1975.44  1994.79  2078.46  2092.06  2104.35
                             2121.56  2144.18  2145.68  2161.94  2172.65
                             2184.29  2215.84  2338.41  2351.05  2366.11
                             2384.65  2473.60  4284.99  4353.74  4392.30
                             4446.02  4464.82  4494.74  4515.68  4543.50
                             4547.27  4549.80  4575.71  4579.98  4584.94
                             4600.12  4603.40  4619.83  4625.89  4661.76
                             5488.58

 Zero-point correction=                           0.330414 (Hartree/Particle)
 Thermal correction to Energy=                    0.351305
 Thermal correction to Enthalpy=                  0.352249
 Thermal correction to Gibbs Free Energy=         0.278624
 Sum of electronic and zero-point Energies=          -1044.756675
 Sum of electronic and thermal Energies=             -1044.735784
 Sum of electronic and thermal Enthalpies=           -1044.734840
 Sum of electronic and thermal Free Energies=        -1044.808464

                     E (Thermal)             CV                S
                      KCal/Mol        Cal/Mol-Kelvin    Cal/Mol-Kelvin
 Total                  220.447             78.177            154.956
 Electronic               0.000              0.000              0.000
 Translational            0.889              2.981             43.768
 Rotational               0.889              2.981             34.662
 Vibrational            218.670             72.215             76.527
 Vibration     1          0.593              1.985              6.167
 Vibration     2          0.594              1.982              5.392
 Vibration     3          0.595              1.979              5.023
 Vibration     4          0.595              1.977              4.797
 Vibration     5          0.597              1.974              4.478
 Vibration     6          0.600              1.963              3.893
 Vibration     7          0.603              1.953              3.556
 Vibration     8          0.604              1.950              3.476
 Vibration     9          0.608              1.934              3.131
 Vibration    10          0.613              1.919              2.885
 Vibration    11          0.616              1.910              2.764
 Vibration    12          0.623              1.886              2.501
 Vibration    13          0.633              1.855              2.241
 Vibration    14          0.643              1.823              2.027
 Vibration    15          0.651              1.799              1.900
 Vibration    16          0.653              1.792              1.864
 Vibration    17          0.662              1.764              1.735
 Vibration    18          0.670              1.740              1.641
 Vibration    19          0.671              1.737              1.626
 Vibration    20          0.691              1.677              1.427
 Vibration    21          0.725              1.582              1.181
 Vibration    22          0.750              1.514              1.041
 Vibration    23          0.772              1.455              0.937
 Vibration    24          0.777              1.440              0.913
 Vibration    25          0.784              1.423              0.886
 Vibration    26          0.805              1.369              0.807
 Vibration    27          0.828              1.315              0.736
 Vibration    28          0.838              1.291              0.706
 Vibration    29          0.969              1.011              0.433

 Optimization completed.
    -- Stationary point found.
 Normal termination of Gaussian 09 at Fri Jun  3 21:40:36 2016.
