 Gaussian 09, Revision D.01,
 Gaussian 09:  AM64L-G09RevD.01 24-Apr-2013

 ----------------------------------------------------------------------
 #p geom=allcheck guess=read chkbasis freq=(noraman,HPModes) pop=(Chelp
 G,readradii) m06 empiricaldispersion=gd3 int=ultrafine
 ----------------------------------------------------------------------

 Structure from the checkpoint file:  "/scratch/Gau-23607.chk"
 ------------
 freq with HP
 ------------
 Charge =  1 Multiplicity = 1

                         Standard orientation:
 ---------------------------------------------------------------------
 Center     Atomic      Atomic             Coordinates (Angstroms)
 Number     Number       Type             X           Y           Z
 ---------------------------------------------------------------------
      1         46           0        0.120458   -0.875570   -0.099432
      2          6           0        0.098306   -2.952030   -0.264689
      3          6           0        1.496615   -2.762313   -0.263013
      4          6           0        2.200470   -0.805193   -0.036393
      5          7           0       -1.994367   -0.547837   -0.159299
      6          6           0       -2.332842    0.692802   -0.137178
      7          6           0       -1.351360    1.776613   -0.040167
      8          7           0       -0.071714    1.352942    0.021178
      9          6           0        0.895308    2.261451    0.119935
     10          1           0        1.915528    1.880524    0.165148
     11          8           0       -3.625428    0.983489   -0.192462
     12          6           0        4.604993    0.582002    0.176303
     13          6           0        4.047504    0.341990   -1.079451
     14          6           0        2.847474   -0.359328   -1.191570
     15          6           0        2.764042   -0.585112    1.223084
     16          6           0        3.963150    0.119246    1.325078
     17          1           0        5.549538    1.116500    0.258993
     18          1           0        4.552220    0.691356   -1.978914
     19          1           0        2.420823   -0.557564   -2.175810
     20          1           0        2.273804   -0.961770    2.121869
     21          1           0        4.402015    0.294664    2.306117
     22          1           0        2.062755   -3.054233    0.619291
     23          1           0        2.040123   -2.862550   -1.200666
     24          1           0       -0.414160   -3.163998   -1.205729
     25          1           0       -0.384950   -3.337042    0.635296
     26          6           0       -1.707725    3.115820   -0.007767
     27          6           0       -0.689251    4.062470    0.098531
     28          6           0        0.627817    3.630483    0.164135
     29          6           0       -4.305408   -0.279900   -0.430070
     30          6           0       -3.236340   -1.343317   -0.125182
     31          1           0       -2.755533    3.401791   -0.063339
     32          1           0       -0.927556    5.123504    0.128985
     33          1           0        1.449957    4.336824    0.247984
     34          1           0       -5.172370   -0.317700    0.236369
     35          1           0       -4.638733   -0.273863   -1.473748
     36          1           0       -3.194055   -2.105491   -0.914522
     37          6           0       -3.406143   -1.991275    1.236965
     38          1           0       -4.321208   -2.595666    1.265881
     39          1           0       -2.558979   -2.644953    1.474895
     40          1           0       -3.473932   -1.224217    2.021024
 ---------------------------------------------------------------------

 SCF Done:  E(RM06) =  -969.905635160     A.U. after    1 cycles

 The electronic state is 1-A.
 Alpha  occ. eigenvalues --  -19.42120 -14.58027 -14.56043 -10.50282 -10.44887
 Alpha  occ. eigenvalues --  -10.43894 -10.43270 -10.42462 -10.42083 -10.41015
 Alpha  occ. eigenvalues --  -10.40662 -10.40197 -10.40160 -10.39478 -10.37240
 Alpha  occ. eigenvalues --  -10.37236 -10.36858 -10.36850 -10.36552 -10.36074
 Alpha  occ. eigenvalues --   -3.47416  -2.21784  -2.21571  -2.18293  -1.27376
 Alpha  occ. eigenvalues --   -1.12180  -1.07595  -0.98510  -0.96175  -0.95900
 Alpha  occ. eigenvalues --   -0.92404  -0.90934  -0.87323  -0.86846  -0.84585
 Alpha  occ. eigenvalues --   -0.80680  -0.78821  -0.75057  -0.74666  -0.73000
 Alpha  occ. eigenvalues --   -0.72959  -0.71278  -0.69039  -0.65381  -0.64712
 Alpha  occ. eigenvalues --   -0.63664  -0.63580  -0.61819  -0.60917  -0.59875
 Alpha  occ. eigenvalues --   -0.58434  -0.57877  -0.57606  -0.57571  -0.57114
 Alpha  occ. eigenvalues --   -0.56351  -0.54727  -0.54445  -0.53888  -0.53465
 Alpha  occ. eigenvalues --   -0.52559  -0.52110  -0.51560  -0.50692  -0.50372
 Alpha  occ. eigenvalues --   -0.49700  -0.48372  -0.48151  -0.46882  -0.45608
 Alpha  occ. eigenvalues --   -0.45121  -0.43186  -0.42801  -0.41895  -0.41685
 Alpha  occ. eigenvalues --   -0.39990  -0.38921  -0.38260  -0.37549  -0.35621
 Alpha virt. eigenvalues --   -0.19603  -0.17309  -0.15959  -0.15081  -0.12959
 Alpha virt. eigenvalues --   -0.12282  -0.11963  -0.11786  -0.11269  -0.10168
 Alpha virt. eigenvalues --   -0.09934  -0.09593  -0.09144  -0.08942  -0.08760

 Mulliken charges:
               1
     1  Pd  -0.087386
     2  C   -0.318338
     3  C   -0.389247
     4  C    0.225530
     5  N   -0.126191
     6  C   -0.028356
     7  C    0.086569
     8  N    0.213531
     9  C   -0.036155
    10  H    0.231888
    11  O   -0.312765
    12  C   -0.223574
    13  C   -0.143310
    14  C   -0.323588
    15  C   -0.361957
    16  C   -0.132725
    17  H    0.219766
    18  H    0.217921
    19  H    0.212225
    20  H    0.213283
    21  H    0.217780
    22  H    0.272020
    23  H    0.270282
    24  H    0.251589
    25  H    0.241223
    26  C    0.063472
    27  C   -0.425906
    28  C   -0.406101
    29  C   -0.154569
    30  C    0.028060
    31  H    0.258602
    32  H    0.245226
    33  H    0.242574
    34  H    0.236613
    35  H    0.240595
    36  H    0.221689
    37  C   -0.630200
    38  H    0.243061
    39  H    0.215955
    40  H    0.230914
 Sum of Mulliken charges =   1.00000

 Dipole moment (field-independent basis, Debye):
    X=             -1.9571    Y=              1.0622    Z=             -0.2346  Tot=              2.2391
 Quadrupole moment (field-independent basis, Debye-Ang):
   XX=            -84.7784   YY=            -94.1051   ZZ=           -128.4180
   XY=              6.4029   XZ=              1.8146   YZ=              1.0631

  Exact polarizability: 296.357  20.648 261.620   4.999   1.013 162.943
 Approx polarizability: 412.056  37.674 391.353   9.880   4.394 274.560

 ESP charges:
               1
     1  Pd  -0.144139
     2  C   -0.134197
     3  C   -0.063465
     4  C    0.275019
     5  N   -0.240377
     6  C    0.369265
     7  C    0.291136
     8  N   -0.304889
     9  C    0.276148
    10  H    0.006402
    11  O   -0.339424
    12  C   -0.065079
    13  C   -0.070547
    14  C   -0.212399
    15  C   -0.210607
    16  C   -0.054815
    17  H    0.107293
    18  H    0.111786
    19  H    0.139435
    20  H    0.139798
    21  H    0.104701
    22  H    0.096183
    23  H    0.099663
    24  H    0.126840
    25  H    0.123481
    26  C   -0.220467
    27  C    0.095485
    28  C   -0.213174
    29  C    0.125384
    30  C    0.203597
    31  H    0.144569
    32  H    0.113908
    33  H    0.146822
    34  H    0.087334
    35  H    0.062300
    36  H    0.033876
    37  C   -0.297607
    38  H    0.091652
    39  H    0.101457
    40  H    0.097653
 Sum of ESP charges =   1.00000

 ******    1 imaginary frequencies (negative Signs) ******

                      1                      2                      3
                      A                      A                      A
 Frequencies --   -271.2583                23.6242                53.8659
 Red. masses --      6.8769                 4.7522                 4.1547
 Frc consts  --      0.2981                 0.0016                 0.0071
 IR Inten    --     21.0815                 0.0063                 0.7915

                      4                      5                      6
                      A                      A                      A
 Frequencies --     58.9117                64.2827                81.5000
 Red. masses --      2.9947                 5.4955                 2.6114
 Frc consts  --      0.0061                 0.0134                 0.0102
 IR Inten    --      0.5684                 0.1570                 0.2845

                      7                      8                      9
                      A                      A                      A
 Frequencies --     98.8104               111.7769               132.0300
 Red. masses --      3.1013                 3.9105                 4.8417
 Frc consts  --      0.0178                 0.0288                 0.0497
 IR Inten    --      2.7387                 0.8312                 1.6296

                     10                     11                     12
                      A                      A                      A
 Frequencies --    143.7831               152.7424               164.0243
 Red. masses --      4.2028                 5.2393                 5.1970
 Frc consts  --      0.0512                 0.0720                 0.0824
 IR Inten    --      1.2955                 1.0315                 1.4754

                     13                     14                     15
                      A                      A                      A
 Frequencies --    193.5698               220.0952               227.0045
 Red. masses --      5.1455                 4.4311                 2.4859
 Frc consts  --      0.1136                 0.1265                 0.0755
 IR Inten    --      3.9782                 2.4953                 1.0154

                     16                     17                     18
                      A                      A                      A
 Frequencies --    239.5851               250.6045               254.3829
 Red. masses --      4.2469                 4.2333                 1.8007
 Frc consts  --      0.1436                 0.1566                 0.0687
 IR Inten    --      0.0064                 4.6463                 5.1550

                     19                     20                     21
                      A                      A                      A
 Frequencies --    336.5539               347.1394               385.8364
 Red. masses --      5.9690                 4.7637                 2.8567
 Frc consts  --      0.3983                 0.3382                 0.2506
 IR Inten    --      3.0597                 1.5302                 1.2195

                     22                     23                     24
                      A                      A                      A
 Frequencies --    408.3172               416.4247               421.4120
 Red. masses --      2.8554                 3.3074                 3.3070
 Frc consts  --      0.2805                 0.3379                 0.3460
 IR Inten    --      0.0206                 1.6564                 2.5802

                     25                     26                     27
                      A                      A                      A
 Frequencies --    431.0682               479.6408               514.1912
 Red. masses --      4.0087                 4.8907                 3.8467
 Frc consts  --      0.4389                 0.6629                 0.5992
 IR Inten    --      0.6342                 2.3730                 1.1273

                     28                     29                     30
                      A                      A                      A
 Frequencies --    522.3489               609.8018               642.1570
 Red. masses --      4.2039                 6.3794                 6.8254
 Frc consts  --      0.6758                 1.3977                 1.6583
 IR Inten    --     10.1355                 0.0023                13.3632

                     31                     32                     33
                      A                      A                      A
 Frequencies --    644.8027               691.4886               695.4937
 Red. masses --      6.5489                 3.7747                 1.8421
 Frc consts  --      1.6043                 1.0634                 0.5250
 IR Inten    --      6.4000                17.7247                 6.7967

                     34                     35                     36
                      A                      A                      A
 Frequencies --    697.5201               714.7319               734.4685
 Red. masses --      1.5869                 6.4688                 1.2908
 Frc consts  --      0.4549                 1.9470                 0.4102
 IR Inten    --      5.8646                 2.1122                81.2997

                     37                     38                     39
                      A                      A                      A
 Frequencies --    746.8447               761.6990               810.6490
 Red. masses --      3.2996                 1.8452                 2.3021
 Frc consts  --      1.0844                 0.6307                 0.8913
 IR Inten    --      4.3793                25.5391                13.0664

                     40                     41                     42
                      A                      A                      A
 Frequencies --    843.2573               849.4844               865.9881
 Red. masses --      1.1586                 1.1235                 2.6686
 Frc consts  --      0.4854                 0.4777                 1.1791
 IR Inten    --      0.6276                 0.4871                 9.9290

                     43                     44                     45
                      A                      A                      A
 Frequencies --    914.7095               920.8131               921.6806
 Red. masses --      1.3173                 2.8164                 1.3232
 Frc consts  --      0.6494                 1.4070                 0.6623
 IR Inten    --      0.8579                 3.0779                 2.2088

                     46                     47                     48
                      A                      A                      A
 Frequencies --    941.6690               975.9120               979.3992
 Red. masses --      1.4993                 1.3346                 1.3680
 Frc consts  --      0.7833                 0.7489                 0.7732
 IR Inten    --      8.7332                 7.1952                 0.0687

                     49                     50                     51
                      A                      A                      A
 Frequencies --    985.2197               986.4037               990.6512
 Red. masses --      5.4486                 1.4208                 3.9445
 Frc consts  --      3.1160                 0.8145                 2.2808
 IR Inten    --     18.7132                 0.0339                38.7622

                     52                     53                     54
                      A                      A                      A
 Frequencies --    993.8454              1002.3720              1003.2847
 Red. masses --      1.1735                 3.5218                 1.3396
 Frc consts  --      0.6829                 2.0848                 0.7945
 IR Inten    --      1.7320                45.1274                 1.3208

                     55                     56                     57
                      A                      A                      A
 Frequencies --   1024.8004              1026.9500              1031.9861
 Red. masses --      1.3501                 5.5079                 6.7179
 Frc consts  --      0.8354                 3.4225                 4.2153
 IR Inten    --      0.1897                 8.2026                 8.1030

                     58                     59                     60
                      A                      A                      A
 Frequencies --   1058.0419              1077.5490              1089.5508
 Red. masses --      1.6740                 2.2621                 2.2569
 Frc consts  --      1.1041                 1.5475                 1.5785
 IR Inten    --      0.3132                 2.6709                12.2495

                     61                     62                     63
                      A                      A                      A
 Frequencies --   1094.4442              1103.2462              1112.8032
 Red. masses --      1.5074                 1.2410                 1.7012
 Frc consts  --      1.0638                 0.8899                 1.2412
 IR Inten    --      5.7734                 1.2696                16.4283

                     64                     65                     66
                      A                      A                      A
 Frequencies --   1123.1476              1158.5982              1168.7672
 Red. masses --      1.5729                 1.9580                 1.0806
 Frc consts  --      1.1690                 1.5486                 0.8697
 IR Inten    --     13.0569                 0.2888                 0.0167

                     67                     68                     69
                      A                      A                      A
 Frequencies --   1170.8749              1185.5995              1197.3545
 Red. masses --      1.1047                 1.1177                 2.6956
 Frc consts  --      0.8923                 0.9257                 2.2770
 IR Inten    --      0.3004                 0.9487                81.1846

                     70                     71                     72
                      A                      A                      A
 Frequencies --   1227.5711              1232.3135              1237.1671
 Red. masses --      1.6340                 1.5765                 1.2513
 Frc consts  --      1.4508                 1.4106                 1.1284
 IR Inten    --      2.9626                 2.5883                17.7471

                     73                     74                     75
                      A                      A                      A
 Frequencies --   1282.4216              1310.2373              1314.0057
 Red. masses --      1.5102                 1.3889                 1.3396
 Frc consts  --      1.4633                 1.4049                 1.3627
 IR Inten    --     30.9576                 9.8401                 1.1328

                     76                     77                     78
                      A                      A                      A
 Frequencies --   1337.9830              1356.2482              1360.5262
 Red. masses --      1.5394                 3.4589                 6.8310
 Frc consts  --      1.6237                 3.7486                 7.4499
 IR Inten    --     40.1721                 6.9088                 1.0152

                     79                     80                     81
                      A                      A                      A
 Frequencies --   1370.4610              1408.1612              1435.4728
 Red. masses --      1.8400                 1.3026                 1.1088
 Frc consts  --      2.0361                 1.5218                 1.3462
 IR Inten    --      3.0919                26.5888                 0.8364

                     82                     83                     84
                      A                      A                      A
 Frequencies --   1452.0092              1462.3025              1474.3370
 Red. masses --      2.4107                 2.2387                 2.1811
 Frc consts  --      2.9946                 2.8205                 2.7933
 IR Inten    --    156.5169                 8.3058                 4.3050

                     85                     86                     87
                      A                      A                      A
 Frequencies --   1475.2483              1475.5964              1490.8374
 Red. masses --      1.0604                 1.0916                 2.1050
 Frc consts  --      1.3597                 1.4004                 2.7565
 IR Inten    --     14.9123                 6.8040                17.0120

                     88                     89                     90
                      A                      A                      A
 Frequencies --   1497.6764              1519.4182              1538.7991
 Red. masses --      1.1846                 1.5567                 3.7202
 Frc consts  --      1.5656                 2.1174                 5.1902
 IR Inten    --      9.1937                 0.7901                50.4405

                     91                     92                     93
                      A                      A                      A
 Frequencies --   1625.3857              1633.7715              1643.8824
 Red. masses --      5.8562                 6.1738                 6.8571
 Frc consts  --      9.1154                 9.7092                10.9177
 IR Inten    --     14.0767                 2.6993                15.1555

                     94                     95                     96
                      A                      A                      A
 Frequencies --   1656.6534              1713.3008              3036.3677
 Red. masses --      6.5426                10.0814                 1.0384
 Frc consts  --     10.5795                17.4356                 5.6404
 IR Inten    --     89.8647               134.9106                 9.9000

                     97                     98                     99
                      A                      A                      A
 Frequencies --   3068.4296              3078.9552              3109.0426
 Red. masses --      1.0842                 1.0628                 1.0557
 Frc consts  --      6.0142                 5.9360                 6.0126
 IR Inten    --      4.7301                22.7095                 5.5828

                    100                    101                    102
                      A                      A                      A
 Frequencies --   3124.6270              3138.0978              3145.2633
 Red. masses --      1.1023                 1.1023                 1.0582
 Frc consts  --      6.3406                 6.3958                 6.1676
 IR Inten    --     13.4262                11.4626                 2.3651

                    103                    104                    105
                      A                      A                      A
 Frequencies --   3149.7304              3161.2022              3163.3154
 Red. masses --      1.1108                 1.0885                 1.0887
 Frc consts  --      6.4925                 6.4090                 6.4186
 IR Inten    --      4.4140                 1.0823                 0.6021

                    106                    107                    108
                      A                      A                      A
 Frequencies --   3179.7629              3186.7349              3187.1272
 Red. masses --      1.0895                 1.0943                 1.0914
 Frc consts  --      6.4904                 6.5473                 6.5320
 IR Inten    --      0.5224                 7.4107                 7.5868

                    109                    110                    111
                      A                      A                      A
 Frequencies --   3196.7690              3198.3802              3202.7711
 Red. masses --      1.0905                 1.0986                 1.1164
 Frc consts  --      6.5662                 6.6215                 6.7474
 IR Inten    --      0.1858                 7.9535                 0.8413

                    112                    113                    114
                      A                      A                      A
 Frequencies --   3210.7069              3214.9052              3246.1940
 Red. masses --      1.0942                 1.0995                 1.1167
 Frc consts  --      6.6455                 6.6957                 6.9329
 IR Inten    --      1.1308                 0.5853                 0.2856

 - Thermochemistry -
 -------------------
 Temperature   298.150 Kelvin.  Pressure   1.00000 Atm.
 Atom     1 has atomic number 46 and mass 105.90320

 Molecular mass:   373.05294 amu.
 Principal axes and moments of inertia in atomic units:
                           1         2         3
     Eigenvalues --  4430.257237652.51008**********
           X            0.99957   0.02924  -0.00304
           Y           -0.02926   0.99956  -0.00485
           Z            0.00289   0.00493   0.99998
 This molecule is an asymmetric top.
 Rotational symmetry number  1.
 Warning -- assumption of classical behavior for rotation
           may cause significant error
 Rotational temperatures (Kelvin)      0.01955     0.01132     0.00776
 Rotational constants (GHZ):           0.40737     0.23584     0.16171
    1 imaginary frequencies ignored.
 Zero-point vibrational energy     854204.0 (Joules/Mol)
                                  204.15965 (Kcal/Mol)
 Warning -- explicit consideration of  28 degrees of freedom as
           vibrations may cause significant error
 Vibrational temperatures:     33.99    77.50    84.76    92.49   117.26
          (Kelvin)            142.17   160.82   189.96   206.87   219.76
                              235.99   278.50   316.67   326.61   344.71
                              360.56   366.00   484.23   499.46   555.13
                              587.48   599.14   606.32   620.21   690.10
                              739.81   751.54   877.37   923.92   927.73
                              994.90  1000.66  1003.57  1028.34  1056.73
                             1074.54  1095.91  1166.34  1213.26  1222.22
                             1245.96  1316.06  1324.84  1326.09  1354.85
                             1404.12  1409.14  1417.51  1419.21  1425.32
                             1429.92  1442.19  1443.50  1474.46  1477.55
                             1484.80  1522.28  1550.35  1567.62  1574.66
                             1587.32  1601.07  1615.96  1666.96  1681.59
                             1684.63  1705.81  1722.72  1766.20  1773.02
                             1780.01  1845.12  1885.14  1890.56  1925.06
                             1951.34  1957.49  1971.79  2026.03  2065.32
                             2089.11  2103.92  2121.24  2122.55  2123.05
                             2144.98  2154.82  2186.10  2213.99  2338.56
                             2350.63  2365.18  2383.55  2465.05  4368.65
                             4414.78  4429.92  4473.21  4495.64  4515.02
                             4525.33  4531.75  4548.26  4551.30  4574.96
                             4585.00  4585.56  4599.43  4601.75  4608.07
                             4619.49  4625.53  4670.54

 Zero-point correction=                           0.325349 (Hartree/Particle)
 Thermal correction to Energy=                    0.344802
 Thermal correction to Enthalpy=                  0.345746
 Thermal correction to Gibbs Free Energy=         0.276431
 Sum of electronic and zero-point Energies=           -969.580286
 Sum of electronic and thermal Energies=              -969.560833
 Sum of electronic and thermal Enthalpies=            -969.559889
 Sum of electronic and thermal Free Energies=         -969.629204

                     E (Thermal)             CV                S
                      KCal/Mol        Cal/Mol-Kelvin    Cal/Mol-Kelvin
 Total                  216.367             74.712            145.886
 Electronic               0.000              0.000              0.000
 Translational            0.889              2.981             43.642
 Rotational               0.889              2.981             34.291
 Vibrational            214.589             68.750             67.952
 Vibration     1          0.593              1.985              6.304
 Vibration     2          0.596              1.976              4.670
 Vibration     3          0.596              1.974              4.493
 Vibration     4          0.597              1.971              4.321
 Vibration     5          0.600              1.962              3.854
 Vibration     6          0.604              1.950              3.478
 Vibration     7          0.607              1.940              3.238
 Vibration     8          0.612              1.921              2.916
 Vibration     9          0.616              1.909              2.753
 Vibration    10          0.619              1.900              2.638
 Vibration    11          0.623              1.887              2.503
 Vibration    12          0.635              1.849              2.193
 Vibration    13          0.647              1.810              1.958
 Vibration    14          0.651              1.800              1.903
 Vibration    15          0.657              1.780              1.806
 Vibration    16          0.663              1.762              1.726
 Vibration    17          0.665              1.755              1.700
 Vibration    18          0.717              1.602              1.228
 Vibration    19          0.725              1.581              1.179
 Vibration    20          0.755              1.500              1.016
 Vibration    21          0.773              1.452              0.933
 Vibration    22          0.780              1.435              0.904
 Vibration    23          0.784              1.424              0.887
 Vibration    24          0.792              1.403              0.855
 Vibration    25          0.836              1.295              0.711
 Vibration    26          0.869              1.219              0.624
 Vibration    27          0.877              1.201              0.605
 Vibration    28          0.969              1.011              0.433

 Optimization completed.
    -- Stationary point found.
 Normal termination of Gaussian 09 at Thu Jun  2 17:53:17 2016.
