 Gaussian 09, Revision D.01,
 Gaussian 09:  AM64L-G09RevD.01 24-Apr-2013

 ----------------------------------------------------------------------
 # Geom=Check Freq=NoRaman Pop=(ChelpG,ReadRadii) B3LYP/Gen Pseudo=Read
 ----------------------------------------------------------------------

 ---------
 ferrocene
 ---------
 Structure from the checkpoint file:  "ferrocene.01.chk"
 Charge =  0 Multiplicity = 1

                         Standard orientation:
 ---------------------------------------------------------------------
 Center     Atomic      Atomic             Coordinates (Angstroms)
 Number     Number       Type             X           Y           Z
 ---------------------------------------------------------------------
      1         26           0        0.000726    0.000000    0.000000
      2          6           0       -1.214938    0.000000    1.685749
      3          6           0       -0.375642    1.155259    1.686209
      4          6           0        0.982499    0.714027    1.686907
      5          6           0        0.982499   -0.714027    1.686907
      6          6           0       -0.375642   -1.155259    1.686209
      7          1           0       -0.710179    2.183173    1.659073
      8          1           0        1.857112    1.349529    1.661404
      9          1           0        1.857112   -1.349529    1.661404
     10          1           0       -0.710179   -2.183173    1.659073
     11          1           0       -2.295956    0.000000    1.658025
     12          6           0       -1.214938    0.000000   -1.685749
     13          6           0       -0.375642   -1.155259   -1.686209
     14          6           0        0.982499   -0.714027   -1.686907
     15          6           0        0.982499    0.714027   -1.686907
     16          6           0       -0.375642    1.155259   -1.686209
     17          1           0       -0.710179   -2.183173   -1.659073
     18          1           0        1.857112   -1.349529   -1.661404
     19          1           0        1.857112    1.349529   -1.661404
     20          1           0       -0.710179    2.183173   -1.659073
     21          1           0       -2.295956    0.000000   -1.658025
 ---------------------------------------------------------------------

 SCF Done:  E(RB3LYP) =  -510.527677264     A.U. after   12 cycles

 The electronic state is 1-A'.
 Alpha  occ. eigenvalues --  -10.18746 -10.18738 -10.18712 -10.18712 -10.18711
 Alpha  occ. eigenvalues --  -10.18711 -10.18670 -10.18670 -10.18669 -10.18669
 Alpha  occ. eigenvalues --   -3.43976  -2.25047  -2.20122  -2.20122  -0.88622
 Alpha  occ. eigenvalues --   -0.87064  -0.70712  -0.70712  -0.70605  -0.70605
 Alpha  occ. eigenvalues --   -0.54210  -0.54207  -0.53446  -0.53441  -0.53147
 Alpha  occ. eigenvalues --   -0.51855  -0.40640  -0.40425  -0.40424  -0.39625
 Alpha  occ. eigenvalues --   -0.39624  -0.37568  -0.37564  -0.37123  -0.37119
 Alpha  occ. eigenvalues --   -0.35469  -0.26400  -0.26399  -0.24398  -0.24398
 Alpha  occ. eigenvalues --   -0.23412  -0.19593  -0.19591
 Alpha virt. eigenvalues --   -0.00114  -0.00114   0.01640   0.01642   0.02735
 Alpha virt. eigenvalues --    0.05897   0.07288   0.07293   0.07319   0.07322
 Alpha virt. eigenvalues --    0.14240   0.15828   0.15829   0.16599   0.18446

 Mulliken charges:
               1
     1  Fe  -0.133392
     2  C   -0.088440
     3  C   -0.088401
     4  C   -0.088544
     5  C   -0.088544
     6  C   -0.088401
     7  H    0.101815
     8  H    0.101792
     9  H    0.101792
    10  H    0.101815
    11  H    0.101814
    12  C   -0.088440
    13  C   -0.088401
    14  C   -0.088544
    15  C   -0.088544
    16  C   -0.088401
    17  H    0.101815
    18  H    0.101792
    19  H    0.101792
    20  H    0.101815
    21  H    0.101814
 Sum of Mulliken charges =   0.00000

 Dipole moment (field-independent basis, Debye):
    X=             -0.0031    Y=              0.0000    Z=              0.0000  Tot=              0.0031
 Quadrupole moment (field-independent basis, Debye-Ang):
   XX=            -67.1477   YY=            -67.1526   ZZ=            -78.4531
   XY=              0.0000   XZ=              0.0000   YZ=              0.0000

  Exact polarizability: 101.326   0.000 101.323   0.000   0.000 121.807
 Approx polarizability: 173.706   0.000 173.696   0.000   0.000 206.732

 ESP charges:
               1
     1  Fe  -0.043779
     2  C   -0.091179
     3  C   -0.094190
     4  C   -0.079418
     5  C   -0.079418
     6  C   -0.094190
     7  H    0.094682
     8  H    0.087950
     9  H    0.087950
    10  H    0.094682
    11  H    0.095020
    12  C   -0.091179
    13  C   -0.094190
    14  C   -0.079418
    15  C   -0.079418
    16  C   -0.094190
    17  H    0.094682
    18  H    0.087950
    19  H    0.087950
    20  H    0.094682
    21  H    0.095020
 Sum of ESP charges =   0.00000

                      1                      2                      3
                     A"                     A'                     A'
 Frequencies --     38.1735               165.0309               165.5318
 Red. masses --      3.4141                 4.2386                 4.2300
 Frc consts  --      0.0029                 0.0680                 0.0683
 IR Inten    --      0.0000                 0.7779                 0.8048

                      4                      5                      6
                     A'                     A"                     A"
 Frequencies --    275.3539               341.9469               342.9267
 Red. masses --      5.3301                 4.3226                 4.3520
 Frc consts  --      0.2381                 0.2978                 0.3015
 IR Inten    --      0.0010                 0.0000                 0.0002

                      7                      8                      9
                     A"                     A'                     A'
 Frequencies --    448.3310               453.9337               454.2107
 Red. masses --      7.8502                11.1557                11.1789
 Frc consts  --      0.9297                 1.3544                 1.3588
 IR Inten    --     12.6862                23.9247                23.7650

                     10                     11                     12
                     A"                     A"                     A'
 Frequencies --    569.2129               571.6463               577.3417
 Red. masses --      5.1027                 5.0447                 5.0461
 Frc consts  --      0.9741                 0.9713                 0.9910
 IR Inten    --      0.0000                 0.0003                 0.0002

                     13                     14                     15
                     A'                     A"                     A"
 Frequencies --    580.4229               808.5751               812.0874
 Red. masses --      5.0435                 1.2222                 1.2194
 Frc consts  --      1.0011                 0.4708                 0.4738
 IR Inten    --      0.0006                 0.0000                 0.6249

                     16                     17                     18
                     A"                     A'                     A"
 Frequencies --    823.3787               827.3908               838.9382
 Red. masses --      1.1743                 1.1316                 4.9852
 Frc consts  --      0.4691                 0.4564                 2.0673
 IR Inten    --     77.7298                 0.1016                 0.0000

                     19                     20                     21
                     A"                     A'                     A'
 Frequencies --    839.8521               843.0785               843.6758
 Red. masses --      4.9871                 1.2214                 1.2244
 Frc consts  --      2.0725                 0.5115                 0.5135
 IR Inten    --      0.1285                 5.3790                 5.3583

                     22                     23                     24
                     A'                     A'                     A"
 Frequencies --    854.7624               855.3933               880.4986
 Red. masses --      4.7802                 4.8724                 1.1545
 Frc consts  --      2.0577                 2.1005                 0.5274
 IR Inten    --      0.0077                 0.0061                 0.0934

                     25                     26                     27
                     A"                     A'                     A'
 Frequencies --    881.3936               888.9576               891.1441
 Red. masses --      1.1518                 1.1544                 1.1497
 Frc consts  --      0.5272                 0.5375                 0.5379
 IR Inten    --      0.0000                 0.0354                 0.0005

                     28                     29                     30
                     A"                     A"                     A'
 Frequencies --   1024.0220              1025.1909              1030.9607
 Red. masses --      1.4929                 1.4920                 1.4955
 Frc consts  --      0.9224                 0.9239                 0.9365
 IR Inten    --      0.0033                 0.0000                16.8546

                     31                     32                     33
                     A'                     A"                     A"
 Frequencies --   1031.0334              1073.6284              1073.8095
 Red. masses --      1.4931                 1.1875                 1.1869
 Frc consts  --      0.9351                 0.8065                 0.8064
 IR Inten    --     16.9830                 0.0003                 0.0000

                     34                     35                     36
                     A'                     A'                     A'
 Frequencies --   1082.0741              1083.1297              1135.2031
 Red. masses --      1.1776                 1.1769                 5.7573
 Frc consts  --      0.8124                 0.8135                 4.3714
 IR Inten    --      0.0018                 0.0002                 0.0000

                     37                     38                     39
                     A"                     A"                     A'
 Frequencies --   1136.1761              1292.1464              1292.9703
 Red. masses --      5.8064                 1.2777                 1.2780
 Frc consts  --      4.4162                 1.2569                 1.2588
 IR Inten    --     14.5188                 0.0000                 0.0000

                     40                     41                     42
                     A"                     A"                     A'
 Frequencies --   1387.2540              1387.3375              1407.4673
 Red. masses --      4.9486                 4.9711                 5.3527
 Frc consts  --      5.6110                 5.6372                 6.2474
 IR Inten    --      0.0000                 0.0000                 0.0000

                     43                     44                     45
                     A'                     A"                     A"
 Frequencies --   1407.5749              1463.9512              1464.5127
 Red. masses --      5.3547                 2.4411                 2.4439
 Frc consts  --      6.2507                 3.0824                 3.0883
 IR Inten    --      0.0003                 0.0001                 0.0000

                     46                     47                     48
                     A'                     A'                     A"
 Frequencies --   1464.5896              1464.8443              3244.7648
 Red. masses --      2.4552                 2.4635                 1.0886
 Frc consts  --      3.1029                 3.1145                 6.7530
 IR Inten    --      1.8057                 1.7809                 0.0000

                     49                     50                     51
                     A"                     A'                     A'
 Frequencies --   3245.5596              3246.1568              3247.0254
 Red. masses --      1.0887                 1.0892                 1.0892
 Frc consts  --      6.7565                 6.7621                 6.7660
 IR Inten    --      0.0004                 0.0387                 0.0036

                     52                     53                     54
                     A"                     A"                     A'
 Frequencies --   3259.5884              3260.1137              3260.3978
 Red. masses --      1.0964                 1.0964                 1.0962
 Frc consts  --      6.8636                 6.8656                 6.8658
 IR Inten    --      0.0068                 0.0000                18.9288

                     55                     56                     57
                     A'                     A"                     A'
 Frequencies --   3260.8837              3271.6150              3271.9549
 Red. masses --      1.0963                 1.1062                 1.1058
 Frc consts  --      6.8681                 6.9762                 6.9749
 IR Inten    --     18.7878                 2.5447                 0.0397

 - Thermochemistry -
 -------------------
 Temperature   298.150 Kelvin.  Pressure   1.00000 Atm.
 Atom     1 has atomic number 26 and mass  55.93494

 Molecular mass:   186.01319 amu.
 Principal axes and moments of inertia in atomic units:
                           1         2         3
     Eigenvalues --   822.007361728.847981728.86728
           X            0.00000   1.00000   0.00000
           Y            0.00000   0.00000   1.00000
           Z            1.00000   0.00000   0.00000
 This molecule is an asymmetric top.
 Rotational symmetry number  1.
 Warning -- assumption of classical behavior for rotation
           may cause significant error
 Rotational temperatures (Kelvin)      0.10537     0.05010     0.05010
 Rotational constants (GHZ):           2.19553     1.04390     1.04389
 Zero-point vibrational energy     443629.9 (Joules/Mol)
                                  106.03009 (Kcal/Mol)
 Warning -- explicit consideration of  13 degrees of freedom as
           vibrations may cause significant error
 Vibrational temperatures:     54.92   237.44   238.16   396.17   491.98
          (Kelvin)            493.39   645.05   653.11   653.51   818.97
                              822.47   830.66   835.10  1163.36  1168.41
                             1184.66  1190.43  1207.04  1208.36  1213.00
                             1213.86  1229.81  1230.72  1266.84  1268.13
                             1279.01  1282.16  1473.34  1475.02  1483.32
                             1483.43  1544.71  1544.97  1556.86  1558.38
                             1633.30  1634.70  1859.11  1860.29  1995.95
                             1996.07  2025.03  2025.18  2106.30  2107.10
                             2107.22  2107.58  4668.49  4669.63  4670.49
                             4671.74  4689.81  4690.57  4690.98  4691.68
                             4707.12  4707.61

 Zero-point correction=                           0.168970 (Hartree/Particle)
 Thermal correction to Energy=                    0.177851
 Thermal correction to Enthalpy=                  0.178795
 Thermal correction to Gibbs Free Energy=         0.134703
 Sum of electronic and zero-point Energies=           -510.358708
 Sum of electronic and thermal Energies=              -510.349826
 Sum of electronic and thermal Enthalpies=            -510.348882
 Sum of electronic and thermal Free Energies=         -510.392974

                     E (Thermal)             CV                S
                      KCal/Mol        Cal/Mol-Kelvin    Cal/Mol-Kelvin
 Total                  111.603             37.223             92.799
 Electronic               0.000              0.000              0.000
 Translational            0.889              2.981             41.568
 Rotational               0.889              2.981             29.287
 Vibrational            109.826             31.261             21.944
 Vibration     1          0.594              1.982              5.352
 Vibration     2          0.623              1.885              2.491
 Vibration     3          0.624              1.885              2.486
 Vibration     4          0.677              1.719              1.562
 Vibration     5          0.721              1.592              1.203
 Vibration     6          0.722              1.590              1.199
 Vibration     7          0.807              1.365              0.801
 Vibration     8          0.812              1.352              0.784
 Vibration     9          0.813              1.352              0.783
 Vibration    10          0.925              1.098              0.506
 Vibration    11          0.928              1.093              0.501
 Vibration    12          0.934              1.080              0.490
 Vibration    13          0.937              1.074              0.485

 Optimization completed.
    -- Stationary point found.
 Normal termination of Gaussian 09 at Tue Jun 28 22:55:03 2016.
